# vtk DataFile Version 2.0
2D Simulation Python
ASCII
DATASET UNSTRUCTURED_GRID
FIELD FieldData 1
NODES 1 2 int
79 110

POINTS 79 double
0.0 1.0 0.0
1.725 1.0 0.0
8.275 1.0 0.0
10.0 1.0 0.0
10.0 0.0 0.0
0.0 0.0 0.0
0.431249999999 1.0 0.0
0.862499999998 1.0 0.0
1.29375 1.0 0.0
2.19285714286 1.0 0.0
2.66071428571 1.0 0.0
3.12857142857 1.0 0.0
3.59642857142 1.0 0.0
4.06428571428 1.0 0.0
4.53214285714 1.0 0.0
4.99999999999 1.0 0.0
5.46785714285 1.0 0.0
5.93571428571 1.0 0.0
6.40357142857 1.0 0.0
6.87142857143 1.0 0.0
7.33928571428 1.0 0.0
7.80714285714 1.0 0.0
8.70625 1.0 0.0
9.13749999999 1.0 0.0
9.56875 1.0 0.0
10.0 0.500000000002 0.0
9.5 0.0 0.0
9.0 0.0 0.0
8.5 0.0 0.0
8.0 0.0 0.0
7.5 0.0 0.0
7.0 0.0 0.0
6.5 0.0 0.0
6.0 0.0 0.0
5.5 0.0 0.0
5.0 0.0 0.0
4.5 0.0 0.0
4.0 0.0 0.0
3.5 0.0 0.0
3.0 0.0 0.0
2.5 0.0 0.0
2.0 0.0 0.0
1.5 0.0 0.0
1.0 0.0 0.0
0.5 0.0 0.0
0.0 0.499999999999 0.0
0.695952059958 0.49085241695 0.0
9.30404794004 0.49085241695 0.0
4.76607142856 0.499999999998 0.0
8.490625 0.523203125 0.0
1.50504863137 0.535318617527 0.0
5.79387755102 0.488919155879 0.0
3.72448979592 0.489932309261 0.0
6.69375 0.46058099264 0.0
2.92306973784 0.499407548047 0.0
7.55631041279 0.53874929669 0.0
2.18206400881 0.442073131992 0.0
8.03249989003 0.611220818388 0.0
5.24871841593 0.523538481149 0.0
4.27413143829 0.523928794073 0.0
6.20231413994 0.624802940779 0.0
3.32451190675 0.648334106873 0.0
7.1421549397 0.651779496991 0.0
1.11797296664 0.661852512374 0.0
8.88116175963 0.659429413868 0.0
1.87839329838 0.653858146705 0.0
8.83516693993 0.334696991163 0.0
1.16379473159 0.33760470937 0.0
9.71462157902 0.658108492376 0.0
0.285378420978 0.658108492376 0.0
1.78699670889 0.291898984006 0.0
8.20426661154 0.290262188078 0.0
2.52502825901 0.620611002564 0.0
9.7015577498 0.310660211452 0.0
0.2984422502 0.310660211452 0.0
7.1988879075 0.310034882511 0.0
3.2817244915 0.306047902614 0.0
7.85131574667 0.314975783871 0.0
6.24562257223 0.271568056776 0.0

CELLS 110 440
3 75 53 62
3 36 37 59
3 34 35 58
3 40 72 54
3 31 53 75
3 46 63 67
3 47 66 64
3 37 52 59
3 43 46 67
3 27 66 47
3 39 40 54
3 34 58 51
3 40 56 72
3 35 48 58
3 36 59 48
3 52 76 61
3 43 44 46
3 26 27 47
3 38 76 52
3 31 32 53
3 23 24 47
3 6 7 46
3 37 38 52
3 2 22 49
3 1 50 8
3 14 15 48
3 33 34 51
3 16 17 51
3 33 51 78
3 12 13 52
3 35 36 48
3 18 19 53
3 10 11 54
3 51 60 78
3 20 21 55
3 23 47 64
3 7 63 46
3 2 49 57
3 15 58 48
3 14 48 59
3 40 41 56
3 22 64 49
3 8 50 63
3 16 51 58
3 17 60 51
3 13 59 52
3 12 52 61
3 18 53 60
3 19 62 53
3 11 61 54
3 20 55 62
3 21 57 55
3 6 46 69
3 24 68 47
3 9 56 65
3 1 65 50
3 2 57 21
3 9 72 56
3 15 16 58
3 13 14 59
3 17 18 60
3 11 12 61
3 19 20 62
3 7 8 63
3 22 23 64
3 1 9 65
3 41 70 56
3 10 54 72
3 0 69 45
3 3 25 68
3 9 10 72
3 3 68 24
3 0 6 69
3 32 78 53
3 30 55 77
3 26 47 73
3 44 74 46
3 39 54 76
3 42 50 70
3 28 71 49
3 28 49 66
3 42 67 50
3 30 75 55
3 56 70 65
3 29 30 77
3 53 78 60
3 54 61 76
3 41 42 70
3 28 29 71
3 4 73 25
3 5 74 44
3 5 45 74
3 4 26 73
3 27 28 66
3 42 43 67
3 55 75 62
3 30 31 75
3 38 39 76
3 32 33 78
3 55 57 77
3 49 71 57
3 49 64 66
3 50 67 63
3 50 65 70
3 47 68 73
3 46 74 69
3 57 71 77
3 25 73 68
3 45 69 74
3 29 77 71

CELL_TYPES 110
5 
5 
5 
5 
5 
5 
5 
5 
5 
5 
5 
5 
5 
5 
5 
5 
5 
5 
5 
5 
5 
5 
5 
5 
5 
5 
5 
5 
5 
5 
5 
5 
5 
5 
5 
5 
5 
5 
5 
5 
5 
5 
5 
5 
5 
5 
5 
5 
5 
5 
5 
5 
5 
5 
5 
5 
5 
5 
5 
5 
5 
5 
5 
5 
5 
5 
5 
5 
5 
5 
5 
5 
5 
5 
5 
5 
5 
5 
5 
5 
5 
5 
5 
5 
5 
5 
5 
5 
5 
5 
5 
5 
5 
5 
5 
5 
5 
5 
5 
5 
5 
5 
5 
5 
5 
5 
5 
5 
5 
5 

POINT_DATA 79
VECTORS vector double
0.0 0.0 0.0
0.0 0.0 0.0
0.0 0.0 0.0
0.0 0.0 0.0
0.0 0.0 0.0
0.0 0.0 0.0
0.0 0.0 0.0
0.0 0.0 0.0
0.0 0.0 0.0
0.0 0.0 0.0
0.0 0.0 0.0
0.0 0.0 0.0
0.0 0.0 0.0
0.0 0.0 0.0
0.0 0.0 0.0
0.0 0.0 0.0
0.0 0.0 0.0
0.0 0.0 0.0
0.0 0.0 0.0
0.0 0.0 0.0
0.0 0.0 0.0
0.0 0.0 0.0
0.0 0.0 0.0
0.0 0.0 0.0
0.0 0.0 0.0
0.0 0.0 0.0
0.0 0.0 0.0
0.0 0.0 0.0
0.0 0.0 0.0
0.0 0.0 0.0
0.0 0.0 0.0
0.0 0.0 0.0
0.0 0.0 0.0
0.0 0.0 0.0
0.0 0.0 0.0
0.0 0.0 0.0
0.0 0.0 0.0
0.0 0.0 0.0
0.0 0.0 0.0
0.0 0.0 0.0
0.0 0.0 0.0
0.0 0.0 0.0
0.0 0.0 0.0
0.0 0.0 0.0
0.0 0.0 0.0
1.5 0.0 0.0
0.0 0.0 0.0
0.0 0.0 0.0
0.0 0.0 0.0
0.0 0.0 0.0
0.0 0.0 0.0
0.0 0.0 0.0
0.0 0.0 0.0
0.0 0.0 0.0
0.0 0.0 0.0
0.0 0.0 0.0
0.0 0.0 0.0
0.0 0.0 0.0
0.0 0.0 0.0
0.0 0.0 0.0
0.0 0.0 0.0
0.0 0.0 0.0
0.0 0.0 0.0
0.0 0.0 0.0
0.0 0.0 0.0
0.0 0.0 0.0
0.0 0.0 0.0
0.0 0.0 0.0
0.0 0.0 0.0
0.0 0.0 0.0
0.0 0.0 0.0
0.0 0.0 0.0
0.0 0.0 0.0
0.0 0.0 0.0
0.0 0.0 0.0
0.0 0.0 0.0
0.0 0.0 0.0
0.0 0.0 0.0
0.0 0.0 0.0

SCALARS scalar1 double
LOOKUP_TABLE default
0.0
0.0
0.0
1.0
1.0
0.0
0.0
0.0
0.0
0.0
0.0
0.0
0.0
0.0
0.0
0.0
0.0
0.0
0.0
0.0
0.0
0.0
0.0
0.0
0.0
1.0
0.0
0.0
0.0
0.0
0.0
0.0
0.0
0.0
0.0
0.0
0.0
0.0
0.0
0.0
0.0
0.0
0.0
0.0
0.0
0.0
0.0
0.0
0.0
0.0
0.0
0.0
0.0
0.0
0.0
0.0
0.0
0.0
0.0
0.0
0.0
0.0
0.0
0.0
0.0
0.0
0.0
0.0
0.0
0.0
0.0
0.0
0.0
0.0
0.0
0.0
0.0
0.0
0.0

SCALARS scalar2 double
LOOKUP_TABLE default
0.0
0.0
0.0
1.0
1.0
0.0
0.0
0.0
0.0
0.0
0.0
0.0
0.0
0.0
0.0
0.0
0.0
0.0
0.0
0.0
0.0
0.0
0.0
0.0
0.0
1.0
0.0
0.0
0.0
0.0
0.0
0.0
0.0
0.0
0.0
0.0
0.0
0.0
0.0
0.0
0.0
0.0
0.0
0.0
0.0
0.0
0.0
0.0
0.0
0.0
0.0
0.0
0.0
0.0
0.0
0.0
0.0
0.0
0.0
0.0
0.0
0.0
0.0
0.0
0.0
0.0
0.0
0.0
0.0
0.0
0.0
0.0
0.0
0.0
0.0
0.0
0.0
0.0
0.0

SCALARS scalar3 double
LOOKUP_TABLE default
0.0
0.0
0.0
1.0
1.0
0.0
0.0
0.0
0.0
0.0
0.0
0.0
0.0
0.0
0.0
0.0
0.0
0.0
0.0
0.0
0.0
0.0
0.0
0.0
0.0
1.0
0.0
0.0
0.0
0.0
0.0
0.0
0.0
0.0
0.0
0.0
0.0
0.0
0.0
0.0
0.0
0.0
0.0
0.0
0.0
0.0
0.0
0.0
0.0
0.0
0.0
0.0
0.0
0.0
0.0
0.0
0.0
0.0
0.0
0.0
0.0
0.0
0.0
0.0
0.0
0.0
0.0
0.0
0.0
0.0
0.0
0.0
0.0
0.0
0.0
0.0
0.0
0.0
0.0

