# vtk DataFile Version 2.0
2D Simulation Python
ASCII
DATASET UNSTRUCTURED_GRID
FIELD FieldData 1
NODES 1 2 int
169 260

POINTS 169 double
0.0 1.0 0.0
1.725 1.0 0.0
8.275 1.0 0.0
10.0 1.0 0.0
10.0 0.0 0.0
0.0 0.0 0.0
0.287499999999 1.0 0.0
0.574999999999 1.0 0.0
0.862499999998 1.0 0.0
1.15 1.0 0.0
1.4375 1.0 0.0
2.02272727273 1.0 0.0
2.32045454545 1.0 0.0
2.61818181818 1.0 0.0
2.91590909091 1.0 0.0
3.21363636363 1.0 0.0
3.51136363636 1.0 0.0
3.80909090909 1.0 0.0
4.10681818181 1.0 0.0
4.40454545454 1.0 0.0
4.70227272727 1.0 0.0
4.99999999999 1.0 0.0
5.29772727272 1.0 0.0
5.59545454545 1.0 0.0
5.89318181818 1.0 0.0
6.1909090909 1.0 0.0
6.48863636363 1.0 0.0
6.78636363636 1.0 0.0
7.08409090909 1.0 0.0
7.38181818182 1.0 0.0
7.67954545454 1.0 0.0
7.97727272727 1.0 0.0
8.5625 1.0 0.0
8.85 1.0 0.0
9.13749999999 1.0 0.0
9.425 1.0 0.0
9.7125 1.0 0.0
10.0 0.75 0.0
10.0 0.500000000002 0.0
10.0 0.250000000001 0.0
9.70588235294 0.0 0.0
9.41176470588 0.0 0.0
9.11764705882 0.0 0.0
8.82352941176 0.0 0.0
8.52941176471 0.0 0.0
8.23529411765 0.0 0.0
7.94117647059 0.0 0.0
7.64705882353 0.0 0.0
7.35294117647 0.0 0.0
7.05882352941 0.0 0.0
6.76470588235 0.0 0.0
6.47058823529 0.0 0.0
6.17647058824 0.0 0.0
5.88235294118 0.0 0.0
5.58823529412 0.0 0.0
5.29411764706 0.0 0.0
5.0 0.0 0.0
4.70588235294 0.0 0.0
4.41176470588 0.0 0.0
4.11764705882 0.0 0.0
3.82352941176 0.0 0.0
3.52941176471 0.0 0.0
3.23529411765 0.0 0.0
2.94117647059 0.0 0.0
2.64705882353 0.0 0.0
2.35294117647 0.0 0.0
2.05882352941 0.0 0.0
1.76470588235 0.0 0.0
1.47058823529 0.0 0.0
1.17647058824 0.0 0.0
0.882352941176 0.0 0.0
0.588235294118 0.0 0.0
0.294117647059 0.0 0.0
0.0 0.249999999999 0.0
0.0 0.499999999999 0.0
0.0 0.749999999999 0.0
9.53380451766 0.517379135519 0.0
0.466195482341 0.517379135518 0.0
8.96913198431 0.498411480112 0.0
1.03086801569 0.498411480111 0.0
8.44167470394 0.501861245556 0.0
1.58888861695 0.503779575774 0.0
5.14705882353 0.500000000001 0.0
4.55882352941 0.499475687394 0.0
5.73529411765 0.498964404187 0.0
3.97058823529 0.498466150375 0.0
6.32352941176 0.497980925964 0.0
3.38235294118 0.497508730947 0.0
6.91176470588 0.49704956533 0.0
2.79411764706 0.496603429108 0.0
7.47075097129 0.495207576238 0.0
2.20076185583 0.497066529233 0.0
7.96193202348 0.486766959964 0.0
1.89946944138 0.313020438525 0.0
1.88294801545 0.683861339782 0.0
4.85294117647 0.31468484149 0.0
5.44117647059 0.314495750344 0.0
4.26470588235 0.314311609291 0.0
6.02941176471 0.314132408537 0.0
3.67647058824 0.313958138491 0.0
6.61764705882 0.313788789777 0.0
3.08823529412 0.313624353234 0.0
7.19595600056 0.304929314655 0.0
2.5 0.313310181117 0.0
4.85255052188 0.687402492363 0.0
5.44291411042 0.689026396275 0.0
4.26192046728 0.688295730571 0.0
6.03465584104 0.689981123217 0.0
3.6697558213 0.689461183232 0.0
6.62583254197 0.68894990511 0.0
8.70325641834 0.692625204025 0.0
1.30212723084 0.693194254435 0.0
3.07857906995 0.688447258741 0.0
7.21012801205 0.689585251572 0.0
2.48687972281 0.68760205811 0.0
8.69870260188 0.308713919361 0.0
1.31657164436 0.307816351925 0.0
9.23506051975 0.691959838579 0.0
0.764939480248 0.691959838578 0.0
9.25160877231 0.310427482215 0.0
0.748391227687 0.310427482214 0.0
8.21122442473 0.638468819022 0.0
0.268314984255 0.742108029631 0.0
9.73168501574 0.742108029631 0.0
0.252635020026 0.374999999999 0.0
9.74736497997 0.375000000002 0.0
7.72214826354 0.651069090123 0.0
8.21453531984 0.349475887293 0.0
7.74090316677 0.300050910333 0.0
1.61078827685 0.226937318023 0.0
1.58125 0.772943999168 0.0
9.57630631057 0.230228287628 0.0
0.423693689432 0.230228287628 0.0
8.97803497219 0.765358649381 0.0
1.02196502781 0.765358649379 0.0
2.17565919384 0.770513373198 0.0
8.97058823529 0.227356723182 0.0
1.0299653794 0.225889645801 0.0
2.76704545454 0.769584615415 0.0
6.93522727273 0.770007903763 0.0
5.14705882353 0.228373702423 0.0
8.4387311094 0.766591053721 0.0
3.3625 0.770412694979 0.0
4.55882352941 0.228088844432 0.0
5.73529411765 0.227811019344 0.0
6.33977272727 0.770798934079 0.0
3.97058823529 0.227540230486 0.0
3.95795454545 0.771166561959 0.0
6.32352941176 0.22727648113 0.0
5.74327223865 0.772577278538 0.0
3.38235294118 0.227019774468 0.0
6.91176470588 0.226770113627 0.0
4.55408939317 0.772675864126 0.0
2.79411764706 0.226527501661 0.0
5.14856717475 0.773297304491 0.0
2.20588235294 0.226063436201 0.0
7.49287817665 0.767172383587 0.0
7.45949466056 0.238297229446 0.0
0.530243261901 0.759823703398 0.0
9.4697567381 0.759823703399 0.0
8.45332569482 0.240742782652 0.0
8.00876614388 0.227760684388 0.0
7.95594520968 0.775503093255 0.0
9.80741253464 0.178563108035 0.0
0.192587465358 0.178563108033 0.0
9.85625 0.875 0.0
0.14375 0.875 0.0
0.186165117982 0.557331036016 0.0
9.81383488202 0.557331036018 0.0

CELLS 260 1040
3 76 119 117
3 77 118 120
3 80 127 121
3 91 93 94
3 80 110 115
3 81 116 111
3 78 115 110
3 79 111 116
3 92 121 127
3 78 117 119
3 79 120 118
3 82 95 104
3 83 104 95
3 82 105 96
3 84 96 105
3 83 97 106
3 85 106 97
3 92 128 126
3 81 94 93
3 84 107 98
3 86 98 107
3 85 99 108
3 87 108 99
3 90 126 128
3 86 109 100
3 88 100 109
3 87 101 112
3 89 112 101
3 88 113 102
3 90 102 113
3 89 103 114
3 91 114 103
3 66 67 93
3 121 162 2
3 162 31 2
3 1 11 94
3 12 13 114
3 28 29 113
3 7 8 118
3 34 35 117
3 14 15 112
3 26 27 109
3 16 17 108
3 24 25 107
3 66 93 155
3 32 33 110
3 9 10 111
3 12 114 135
3 18 19 106
3 56 57 95
3 43 44 115
3 68 69 116
3 54 55 96
3 58 59 97
3 52 53 98
3 60 61 99
3 50 51 100
3 62 63 101
3 22 23 105
3 48 49 102
3 64 65 103
3 20 21 104
3 14 112 138
3 46 47 128
3 41 42 119
3 70 71 120
3 91 94 135
3 27 139 109
3 7 118 158
3 35 159 117
3 1 94 130
3 91 155 93
3 68 116 129
3 16 108 142
3 91 135 114
3 25 145 107
3 89 138 112
3 81 130 94
3 46 128 161
3 29 156 113
3 88 109 139
3 18 106 147
3 81 129 116
3 87 142 108
3 81 93 129
3 6 158 122
3 36 123 159
3 86 107 145
3 67 129 93
3 41 119 131
3 71 132 120
3 23 149 105
3 85 147 106
3 84 105 149
3 73 74 124
3 38 39 125
3 56 95 140
3 57 143 95
3 20 104 152
3 83 152 104
3 55 140 96
3 54 96 144
3 58 97 143
3 59 146 97
3 53 144 98
3 52 98 148
3 82 96 140
3 60 99 146
3 82 140 95
3 61 150 99
3 51 148 100
3 83 143 97
3 50 100 151
3 83 95 143
3 62 101 150
3 84 98 144
3 63 153 101
3 84 144 96
3 49 151 102
3 85 146 99
3 64 103 153
3 85 97 146
3 65 155 103
3 86 100 148
3 82 104 154
3 86 148 98
3 33 133 110
3 9 111 134
3 87 150 101
3 87 99 150
3 88 102 151
3 88 151 100
3 89 153 103
3 89 101 153
3 11 135 94
3 91 103 155
3 21 154 104
3 82 154 105
3 30 162 126
3 22 105 154
3 10 130 111
3 83 106 152
3 6 7 158
3 35 36 159
3 19 152 106
3 81 111 130
3 84 149 107
3 24 107 149
3 85 108 147
3 32 110 141
3 78 110 133
3 79 134 111
3 17 147 108
3 86 145 109
3 44 160 115
3 30 31 162
3 76 168 125
3 77 124 167
3 80 141 110
3 26 109 145
3 76 123 168
3 77 167 122
3 87 112 142
3 90 113 156
3 15 142 112
3 78 136 115
3 79 116 137
3 88 139 113
3 76 131 119
3 77 120 132
3 28 113 139
3 89 114 138
3 43 115 136
3 69 137 116
3 13 138 114
3 48 102 157
3 90 157 102
3 8 134 118
3 34 117 133
3 45 161 127
3 45 46 161
3 80 115 160
3 78 119 136
3 79 137 120
3 45 127 160
3 42 136 119
3 70 120 137
3 78 133 117
3 79 118 134
3 44 45 160
3 2 141 121
3 92 162 121
3 30 126 156
3 76 117 159
3 77 158 118
3 37 168 123
3 75 122 167
3 92 126 162
3 80 121 141
3 71 72 132
3 40 41 131
3 47 157 128
3 47 48 157
3 29 30 156
3 8 9 134
3 33 34 133
3 37 123 165
3 75 166 122
3 77 132 124
3 76 125 131
3 77 122 158
3 76 159 123
3 90 156 126
3 72 164 132
3 40 131 163
3 2 32 141
3 5 164 72
3 4 40 163
3 67 68 129
3 1 130 10
3 74 75 167
3 37 38 168
3 11 12 135
3 42 43 136
3 69 70 137
3 13 14 138
3 55 56 140
3 27 28 139
3 57 58 143
3 15 16 142
3 53 54 144
3 59 60 146
3 25 26 145
3 51 52 148
3 17 18 147
3 61 62 150
3 49 50 151
3 23 24 149
3 63 64 153
3 19 20 152
3 21 22 154
3 65 66 155
3 124 132 164
3 125 163 131
3 38 125 168
3 74 167 124
3 5 73 164
3 4 163 39
3 80 160 127
3 3 165 36
3 0 6 166
3 90 128 157
3 92 161 128
3 73 124 164
3 39 163 125
3 6 122 166
3 36 165 123
3 92 127 161
3 3 37 165
3 0 166 75

CELL_TYPES 260
5 
5 
5 
5 
5 
5 
5 
5 
5 
5 
5 
5 
5 
5 
5 
5 
5 
5 
5 
5 
5 
5 
5 
5 
5 
5 
5 
5 
5 
5 
5 
5 
5 
5 
5 
5 
5 
5 
5 
5 
5 
5 
5 
5 
5 
5 
5 
5 
5 
5 
5 
5 
5 
5 
5 
5 
5 
5 
5 
5 
5 
5 
5 
5 
5 
5 
5 
5 
5 
5 
5 
5 
5 
5 
5 
5 
5 
5 
5 
5 
5 
5 
5 
5 
5 
5 
5 
5 
5 
5 
5 
5 
5 
5 
5 
5 
5 
5 
5 
5 
5 
5 
5 
5 
5 
5 
5 
5 
5 
5 
5 
5 
5 
5 
5 
5 
5 
5 
5 
5 
5 
5 
5 
5 
5 
5 
5 
5 
5 
5 
5 
5 
5 
5 
5 
5 
5 
5 
5 
5 
5 
5 
5 
5 
5 
5 
5 
5 
5 
5 
5 
5 
5 
5 
5 
5 
5 
5 
5 
5 
5 
5 
5 
5 
5 
5 
5 
5 
5 
5 
5 
5 
5 
5 
5 
5 
5 
5 
5 
5 
5 
5 
5 
5 
5 
5 
5 
5 
5 
5 
5 
5 
5 
5 
5 
5 
5 
5 
5 
5 
5 
5 
5 
5 
5 
5 
5 
5 
5 
5 
5 
5 
5 
5 
5 
5 
5 
5 
5 
5 
5 
5 
5 
5 
5 
5 
5 
5 
5 
5 
5 
5 
5 
5 
5 
5 
5 
5 
5 
5 
5 
5 
5 
5 
5 
5 
5 
5 
5 
5 
5 
5 
5 
5 
5 
5 
5 
5 
5 
5 

POINT_DATA 169
VECTORS vector double
0.0 0.0 0.0
0.0 0.0 0.0
0.0 0.0 0.0
0.0 0.0 0.0
0.0 0.0 0.0
0.0 0.0 0.0
0.0 0.0 0.0
0.0 0.0 0.0
0.0 0.0 0.0
0.0 0.0 0.0
0.0 0.0 0.0
0.0 0.0 0.0
0.0 0.0 0.0
0.0 0.0 0.0
0.0 0.0 0.0
0.0 0.0 0.0
0.0 0.0 0.0
0.0 0.0 0.0
0.0 0.0 0.0
0.0 0.0 0.0
0.0 0.0 0.0
0.0 0.0 0.0
0.0 0.0 0.0
0.0 0.0 0.0
0.0 0.0 0.0
0.0 0.0 0.0
0.0 0.0 0.0
0.0 0.0 0.0
0.0 0.0 0.0
0.0 0.0 0.0
0.0 0.0 0.0
0.0 0.0 0.0
0.0 0.0 0.0
0.0 0.0 0.0
0.0 0.0 0.0
0.0 0.0 0.0
0.0 0.0 0.0
0.0 0.0 0.0
0.0 0.0 0.0
0.0 0.0 0.0
0.0 0.0 0.0
0.0 0.0 0.0
0.0 0.0 0.0
0.0 0.0 0.0
0.0 0.0 0.0
0.0 0.0 0.0
0.0 0.0 0.0
0.0 0.0 0.0
0.0 0.0 0.0
0.0 0.0 0.0
0.0 0.0 0.0
0.0 0.0 0.0
0.0 0.0 0.0
0.0 0.0 0.0
0.0 0.0 0.0
0.0 0.0 0.0
0.0 0.0 0.0
0.0 0.0 0.0
0.0 0.0 0.0
0.0 0.0 0.0
0.0 0.0 0.0
0.0 0.0 0.0
0.0 0.0 0.0
0.0 0.0 0.0
0.0 0.0 0.0
0.0 0.0 0.0
0.0 0.0 0.0
0.0 0.0 0.0
0.0 0.0 0.0
0.0 0.0 0.0
0.0 0.0 0.0
0.0 0.0 0.0
0.0 0.0 0.0
1.125 0.0 0.0
1.5 0.0 0.0
1.125 0.0 0.0
0.0 0.0 0.0
0.0 0.0 0.0
0.0 0.0 0.0
0.0 0.0 0.0
0.0 0.0 0.0
0.0 0.0 0.0
0.0 0.0 0.0
0.0 0.0 0.0
0.0 0.0 0.0
0.0 0.0 0.0
0.0 0.0 0.0
0.0 0.0 0.0
0.0 0.0 0.0
0.0 0.0 0.0
0.0 0.0 0.0
0.0 0.0 0.0
0.0 0.0 0.0
0.0 0.0 0.0
0.0 0.0 0.0
0.0 0.0 0.0
0.0 0.0 0.0
0.0 0.0 0.0
0.0 0.0 0.0
0.0 0.0 0.0
0.0 0.0 0.0
0.0 0.0 0.0
0.0 0.0 0.0
0.0 0.0 0.0
0.0 0.0 0.0
0.0 0.0 0.0
0.0 0.0 0.0
0.0 0.0 0.0
0.0 0.0 0.0
0.0 0.0 0.0
0.0 0.0 0.0
0.0 0.0 0.0
0.0 0.0 0.0
0.0 0.0 0.0
0.0 0.0 0.0
0.0 0.0 0.0
0.0 0.0 0.0
0.0 0.0 0.0
0.0 0.0 0.0
0.0 0.0 0.0
0.0 0.0 0.0
0.0 0.0 0.0
0.0 0.0 0.0
0.0 0.0 0.0
0.0 0.0 0.0
0.0 0.0 0.0
0.0 0.0 0.0
0.0 0.0 0.0
0.0 0.0 0.0
0.0 0.0 0.0
0.0 0.0 0.0
0.0 0.0 0.0
0.0 0.0 0.0
0.0 0.0 0.0
0.0 0.0 0.0
0.0 0.0 0.0
0.0 0.0 0.0
0.0 0.0 0.0
0.0 0.0 0.0
0.0 0.0 0.0
0.0 0.0 0.0
0.0 0.0 0.0
0.0 0.0 0.0
0.0 0.0 0.0
0.0 0.0 0.0
0.0 0.0 0.0
0.0 0.0 0.0
0.0 0.0 0.0
0.0 0.0 0.0
0.0 0.0 0.0
0.0 0.0 0.0
0.0 0.0 0.0
0.0 0.0 0.0
0.0 0.0 0.0
0.0 0.0 0.0
0.0 0.0 0.0
0.0 0.0 0.0
0.0 0.0 0.0
0.0 0.0 0.0
0.0 0.0 0.0
0.0 0.0 0.0
0.0 0.0 0.0
0.0 0.0 0.0
0.0 0.0 0.0
0.0 0.0 0.0
0.0 0.0 0.0
0.0 0.0 0.0
0.0 0.0 0.0
0.0 0.0 0.0

SCALARS scalar1 double
LOOKUP_TABLE default
0.0
0.0
0.0
0.0
0.0
0.0
0.0
0.0
0.0
0.0
0.0
0.0
0.0
0.0
0.0
0.0
0.0
0.0
0.0
0.0
0.0
0.0
0.0
0.0
0.0
0.0
0.0
0.0
0.0
0.0
0.0
0.0
0.0
0.0
0.0
0.0
0.0
0.0
0.0
0.0
0.0
0.0
0.0
0.0
0.0
0.0
0.0
0.0
0.0
0.0
0.0
0.0
0.0
0.0
0.0
0.0
0.0
0.0
0.0
0.0
0.0
0.0
0.0
0.0
0.0
0.0
0.0
0.0
0.0
0.0
0.0
0.0
0.0
0.0
0.0
0.0
0.0
0.0
0.0
0.0
0.0
0.0
0.0
0.0
0.0
0.0
0.0
0.0
0.0
0.0
0.0
0.0
0.0
0.0
0.0
0.0
0.0
0.0
0.0
0.0
0.0
0.0
0.0
0.0
0.0
0.0
0.0
0.0
0.0
0.0
0.0
0.0
0.0
0.0
0.0
0.0
0.0
0.0
0.0
0.0
0.0
0.0
0.0
0.0
0.0
0.0
0.0
0.0
0.0
0.0
0.0
0.0
0.0
0.0
0.0
0.0
0.0
0.0
0.0
0.0
0.0
0.0
0.0
0.0
0.0
0.0
0.0
0.0
0.0
0.0
0.0
0.0
0.0
0.0
0.0
0.0
0.0
0.0
0.0
0.0
0.0
0.0
0.0
0.0
0.0
0.0
0.0
0.0
0.0

SCALARS scalar2 double
LOOKUP_TABLE default
0.0
0.0
0.0
0.0
0.0
0.0
0.0
0.0
0.0
0.0
0.0
0.0
0.0
0.0
0.0
0.0
0.0
0.0
0.0
0.0
0.0
0.0
0.0
0.0
0.0
0.0
0.0
0.0
0.0
0.0
0.0
0.0
0.0
0.0
0.0
0.0
0.0
0.0
0.0
0.0
0.0
0.0
0.0
0.0
0.0
0.0
0.0
0.0
0.0
0.0
0.0
0.0
0.0
0.0
0.0
0.0
0.0
0.0
0.0
0.0
0.0
0.0
0.0
0.0
0.0
0.0
0.0
0.0
0.0
0.0
0.0
0.0
0.0
0.0
0.0
0.0
0.0
0.0
0.0
0.0
0.0
0.0
0.0
0.0
0.0
0.0
0.0
0.0
0.0
0.0
0.0
0.0
0.0
0.0
0.0
0.0
0.0
0.0
0.0
0.0
0.0
0.0
0.0
0.0
0.0
0.0
0.0
0.0
0.0
0.0
0.0
0.0
0.0
0.0
0.0
0.0
0.0
0.0
0.0
0.0
0.0
0.0
0.0
0.0
0.0
0.0
0.0
0.0
0.0
0.0
0.0
0.0
0.0
0.0
0.0
0.0
0.0
0.0
0.0
0.0
0.0
0.0
0.0
0.0
0.0
0.0
0.0
0.0
0.0
0.0
0.0
0.0
0.0
0.0
0.0
0.0
0.0
0.0
0.0
0.0
0.0
0.0
0.0
0.0
0.0
0.0
0.0
0.0
0.0

SCALARS scalar3 double
LOOKUP_TABLE default
0.0
0.0
0.0
0.0
0.0
0.0
0.0
0.0
0.0
0.0
0.0
0.0
0.0
0.0
0.0
0.0
0.0
0.0
0.0
0.0
0.0
0.0
0.0
0.0
0.0
0.0
0.0
0.0
0.0
0.0
0.0
0.0
0.0
0.0
0.0
0.0
0.0
0.0
0.0
0.0
0.0
0.0
0.0
0.0
0.0
0.0
0.0
0.0
0.0
0.0
0.0
0.0
0.0
0.0
0.0
0.0
0.0
0.0
0.0
0.0
0.0
0.0
0.0
0.0
0.0
0.0
0.0
0.0
0.0
0.0
0.0
0.0
0.0
0.0
0.0
0.0
0.0
0.0
0.0
0.0
0.0
0.0
0.0
0.0
0.0
0.0
0.0
0.0
0.0
0.0
0.0
0.0
0.0
0.0
0.0
0.0
0.0
0.0
0.0
0.0
0.0
0.0
0.0
0.0
0.0
0.0
0.0
0.0
0.0
0.0
0.0
0.0
0.0
0.0
0.0
0.0
0.0
0.0
0.0
0.0
0.0
0.0
0.0
0.0
0.0
0.0
0.0
0.0
0.0
0.0
0.0
0.0
0.0
0.0
0.0
0.0
0.0
0.0
0.0
0.0
0.0
0.0
0.0
0.0
0.0
0.0
0.0
0.0
0.0
0.0
0.0
0.0
0.0
0.0
0.0
0.0
0.0
0.0
0.0
0.0
0.0
0.0
0.0
0.0
0.0
0.0
0.0
0.0
0.0

