# vtk DataFile Version 2.0
2D Simulation Python
ASCII
DATASET UNSTRUCTURED_GRID
FIELD FieldData 1
NODES 1 2 int
302 506

POINTS 302 double
0.0 1.0 0.0
1.725 1.0 0.0
8.275 1.0 0.0
10.0 1.0 0.0
10.0 0.0 0.0
0.0 0.0 0.0
0.215625 1.0 0.0
0.431249999999 1.0 0.0
0.646874999998 1.0 0.0
0.862499999998 1.0 0.0
1.078125 1.0 0.0
1.29375 1.0 0.0
1.509375 1.0 0.0
1.95892857143 1.0 0.0
2.19285714286 1.0 0.0
2.42678571428 1.0 0.0
2.66071428571 1.0 0.0
2.89464285714 1.0 0.0
3.12857142857 1.0 0.0
3.3625 1.0 0.0
3.59642857142 1.0 0.0
3.83035714285 1.0 0.0
4.06428571428 1.0 0.0
4.29821428571 1.0 0.0
4.53214285714 1.0 0.0
4.76607142856 1.0 0.0
4.99999999999 1.0 0.0
5.23392857142 1.0 0.0
5.46785714285 1.0 0.0
5.70178571428 1.0 0.0
5.93571428571 1.0 0.0
6.16964285714 1.0 0.0
6.40357142857 1.0 0.0
6.6375 1.0 0.0
6.87142857143 1.0 0.0
7.10535714286 1.0 0.0
7.33928571428 1.0 0.0
7.57321428571 1.0 0.0
7.80714285714 1.0 0.0
8.04107142857 1.0 0.0
8.490625 1.0 0.0
8.70625 1.0 0.0
8.921875 1.0 0.0
9.13749999999 1.0 0.0
9.35312499999 1.0 0.0
9.56875 1.0 0.0
9.784375 1.0 0.0
10.0 0.8 0.0
10.0 0.600000000001 0.0
10.0 0.400000000002 0.0
10.0 0.200000000001 0.0
9.7619047619 0.0 0.0
9.52380952381 0.0 0.0
9.28571428571 0.0 0.0
9.04761904762 0.0 0.0
8.80952380952 0.0 0.0
8.57142857143 0.0 0.0
8.33333333333 0.0 0.0
8.09523809524 0.0 0.0
7.85714285714 0.0 0.0
7.61904761905 0.0 0.0
7.38095238095 0.0 0.0
7.14285714286 0.0 0.0
6.90476190476 0.0 0.0
6.66666666667 0.0 0.0
6.42857142857 0.0 0.0
6.19047619048 0.0 0.0
5.95238095238 0.0 0.0
5.71428571429 0.0 0.0
5.47619047619 0.0 0.0
5.2380952381 0.0 0.0
5.0 0.0 0.0
4.7619047619 0.0 0.0
4.52380952381 0.0 0.0
4.28571428571 0.0 0.0
4.04761904762 0.0 0.0
3.80952380952 0.0 0.0
3.57142857143 0.0 0.0
3.33333333333 0.0 0.0
3.09523809524 0.0 0.0
2.85714285714 0.0 0.0
2.61904761905 0.0 0.0
2.38095238095 0.0 0.0
2.14285714286 0.0 0.0
1.90476190476 0.0 0.0
1.66666666667 0.0 0.0
1.42857142857 0.0 0.0
1.19047619048 0.0 0.0
0.952380952381 0.0 0.0
0.714285714286 0.0 0.0
0.47619047619 0.0 0.0
0.238095238095 0.0 0.0
0.0 0.2 0.0
0.0 0.399999999999 0.0
0.0 0.599999999999 0.0
0.0 0.799999999999 0.0
9.51729498272 0.484063229017 0.0
0.482705017274 0.484063229015 0.0
8.37965774773 0.49422880024 0.0
1.63635183592 0.4969069001 0.0
8.97694591085 0.506910901297 0.0
1.02462617229 0.507765089236 0.0
4.88266646754 0.542411673105 0.0
5.56132587332 0.499431461438 0.0
4.20438023694 0.499153493919 0.0
6.2638356263 0.498543673433 0.0
3.50442794865 0.499278594749 0.0
6.95612964115 0.492412434412 0.0
2.80103089955 0.462419877967 0.0
7.70140185819 0.446258234781 0.0
2.13173173083 0.524672428939 0.0
8.06153066884 0.340048604334 0.0
5.22091248718 0.645794511442 0.0
4.54499538878 0.645644558608 0.0
5.92375132633 0.644539066802 0.0
3.84224436266 0.644335014585 0.0
7.34322022029 0.347622452237 0.0
6.6256462092 0.643891964831 0.0
3.13466882277 0.645364111888 0.0
8.68985184767 0.653727680365 0.0
1.31549315089 0.663464490484 0.0
2.46146044703 0.339989749779 0.0
8.66683184485 0.317336619318 0.0
1.32542098368 0.321501157805 0.0
0.747535729719 0.6851571719 0.0
9.25245513976 0.685139910689 0.0
9.71648892523 0.699259207293 0.0
9.68695674244 0.348873487157 0.0
0.313043257558 0.348873487156 0.0
0.283511074769 0.699259207292 0.0
8.06235706053 0.678034614158 0.0
2.46323393203 0.677785680663 0.0
3.19178289719 0.268350106788 0.0
6.60426285526 0.304978198357 0.0
3.87067788583 0.303007096395 0.0
5.8948485519 0.303365424433 0.0
7.28410215597 0.695247420012 0.0
4.59531716141 0.308063419293 0.0
5.16885332748 0.308483894523 0.0
1.86514216275 0.760902776182 0.0
9.28172064408 0.295572877277 0.0
0.71827935592 0.295572877276 0.0
1.88896523231 0.3190227634 0.0
2.93739851276 0.266884213644 0.0
6.84280776853 0.311731934849 0.0
8.38654369933 0.827888998071 0.0
3.64077255831 0.277723391051 0.0
6.12764762156 0.277561631876 0.0
4.34658830766 0.278363513027 0.0
5.41790851769 0.278666287539 0.0
7.51127490757 0.753306223272 0.0
1.09440430176 0.247359038702 0.0
8.90766567869 0.246255663168 0.0
7.85571954759 0.751087778591 0.0
9.04222952897 0.76490534448 0.0
0.957391497745 0.765271635737 0.0
1.52593755202 0.718739905042 0.0
8.29443757319 0.287014948161 0.0
9.47470987287 0.738428546275 0.0
0.525290127129 0.738428546274 0.0
2.24941442384 0.727419612845 0.0
7.72363849104 0.215643208145 0.0
4.88298465648 0.786893473673 0.0
5.57936135497 0.776474764262 0.0
4.18667228255 0.776348934439 0.0
7.10099701259 0.283209503753 0.0
1.5450878159 0.246460968277 0.0
6.28150510426 0.776077788126 0.0
3.48514692454 0.775941731777 0.0
7.01834083745 0.748569639784 0.0
2.78740067068 0.826355115814 0.0
4.88175796777 0.271121792696 0.0
2.24633428363 0.259205973247 0.0
2.68189303073 0.246867116467 0.0
9.47753305247 0.270410377032 0.0
0.522466947529 0.270410377031 0.0
9.82816858778 0.513480792551 0.0
0.171831412216 0.513480792549 0.0
7.49138001941 0.183000775757 0.0
3.42205633136 0.249247304059 0.0
6.36377664405 0.243611118723 0.0
4.10805680177 0.244342392083 0.0
5.65636210726 0.244545736615 0.0
5.34384578549 0.816008549333 0.0
4.4222141656 0.815920147315 0.0
5.11788504646 0.818932259903 0.0
6.04607706805 0.815897615631 0.0
4.64815581053 0.818867967491 0.0
3.72000229253 0.815814464865 0.0
5.81860547502 0.816912253644 0.0
6.75555616748 0.811086107259 0.0
3.9474504732 0.816826764998 0.0
3.0160416736 0.822106234145 0.0
6.52161687954 0.816377730974 0.0
3.24602861364 0.817736914531 0.0
2.34596202852 0.506401238879 0.0
8.49776089303 0.182613971075 0.0
8.59691152597 0.826827244513 0.0
8.80939286009 0.819068533221 0.0
1.18493278288 0.822834845322 0.0
2.04361590584 0.759936264347 0.0
8.78716603564 0.469938656941 0.0
1.21905373938 0.472898427234 0.0
9.32748398158 0.490595818471 0.0
0.672516018413 0.49059581847 0.0
1.88416709954 0.531280465658 0.0
7.91521124659 0.530751815792 0.0
3.04206074575 0.4649482676 0.0
6.72100439225 0.474788106644 0.0
3.74363410426 0.471527717276 0.0
6.02264180321 0.471900726916 0.0
7.46303653528 0.53756618893 0.0
4.44931775346 0.472442011034 0.0
5.31622646253 0.472704576745 0.0
7.95613997041 0.176842298911 0.0
2.00875105773 0.17727575262 0.0
8.58588250457 0.495492068469 0.0
1.43489576165 0.487263220323 0.0
8.16475924996 0.496162074777 0.0
7.28727396407 0.165132696179 0.0
3.27547512571 0.464477199467 0.0
1.37122154842 0.842702091396 0.0
6.49309715992 0.467719698208 0.0
3.97410809659 0.467969930452 0.0
2.47490316919 0.170656269399 0.0
5.79157475679 0.468237608562 0.0
7.18949756444 0.517385971056 0.0
4.68571397784 0.475660789465 0.0
5.07942099382 0.475760627478 0.0
0.850238973584 0.174384413515 0.0
9.14996250391 0.174277952787 0.0
2.57414904933 0.484906877647 0.0
7.68652163017 0.831381497019 0.0
0.155494010525 0.84564198194 0.0
9.84450598947 0.845641981941 0.0
8.17522176159 0.833348068448 0.0
1.71366216194 0.857281966373 0.0
9.82992564247 0.165492707167 0.0
0.170074357525 0.165492707166 0.0
1.78450206804 0.17496033676 0.0
0.331500939269 0.85499496837 0.0
9.66849906073 0.85499496837 0.0
9.65068511226 0.153979221607 0.0
0.349314887743 0.153979221606 0.0
2.56686998734 0.836511390895 0.0
1.13433509911 0.64875166355 0.0
8.86776597786 0.646056617714 0.0
8.69572454951 0.150187399086 0.0
1.31907989363 0.161682853337 0.0
2.90808908695 0.646457809577 0.0
6.82313572023 0.635916597245 0.0
7.98336157059 0.850917388354 0.0
3.64797551494 0.640710171944 0.0
8.48828905516 0.659702035529 0.0
6.11820306062 0.640974033886 0.0
4.35020870785 0.641426279258 0.0
7.38547690638 0.854701382795 0.0
5.41577246291 0.641643092141 0.0
0.745592967504 0.841636130779 0.0
9.2543862144 0.841613888663 0.0
5.2836649802 0.149720469685 0.0
4.47922499409 0.149276628011 0.0
6.00315014345 0.146756108326 0.0
3.76095660543 0.146296222421 0.0
6.74493217294 0.153416526441 0.0
3.08677474978 0.117309890531 0.0
7.20885471131 0.852658954786 0.0
7.54990536085 0.35347439766 0.0
1.71773824714 0.662706668541 0.0
2.03795679347 0.361709911095 0.0
5.09629174815 0.151644563359 0.0
9.12018801025 0.37488250412 0.0
0.880105282432 0.375050748359 0.0
4.66630342294 0.151223165857 0.0
7.87017225514 0.347675491616 0.0
0.651914422209 0.143486937625 0.0
9.34808557779 0.143486937625 0.0
8.27846129182 0.662108617792 0.0
8.48251704899 0.35699292014 0.0
3.33445344357 0.642790936579 0.0
6.4319218322 0.643191804018 0.0
9.87789440682 0.688397612998 0.0
0.122105593175 0.688397612997 0.0
9.86705167096 0.325670888141 0.0
0.132948329038 0.32567088814 0.0
9.64338308248 0.559746705055 0.0
4.03595807833 0.643486480568 0.0
1.7403646504 0.355342464069 0.0
0.356616917515 0.559746705053 0.0
5.73001749881 0.643691816574 0.0
0.859130341445 0.567138280998 0.0
9.14105072538 0.567079815056 0.0
4.73255067652 0.654332075086 0.0
5.83089291249 0.142059156464 0.0
5.03327655611 0.654423564377 0.0
2.37202888414 0.852482430134 0.0
3.93278609274 0.141831824841 0.0
6.95122098048 0.149829805411 0.0
8.15445055363 0.16049957573 0.0
7.68838224799 0.636067292713 0.0
6.54786873563 0.14207004261 0.0
2.68203291303 0.656606551044 0.0

CELLS 506 2024
3 203 96 174
3 204 175 97
3 140 203 174
3 141 175 204
3 136 226 169
3 13 139 236
3 110 205 200
3 97 159 204
3 96 203 158
3 78 265 132
3 107 169 226
3 124 204 159
3 125 158 203
3 138 171 228
3 102 228 171
3 1 13 236
3 78 132 179
3 137 227 171
3 102 171 227
3 106 179 220
3 105 222 180
3 96 127 174
3 97 175 128
3 82 172 224
3 80 173 143
3 104 181 223
3 103 225 182
3 42 43 154
3 9 10 155
3 132 220 179
3 110 200 160
3 133 180 222
3 110 195 172
3 82 83 172
3 139 200 205
3 121 172 195
3 134 223 181
3 43 259 154
3 9 155 258
3 135 182 225
3 106 146 179
3 96 285 127
3 97 128 288
3 99 166 217
3 105 180 147
3 13 200 139
3 107 165 144
3 108 143 173
3 86 248 166
3 123 217 166
3 80 81 173
3 104 148 181
3 44 45 158
3 7 8 159
3 121 224 172
3 103 182 149
3 2 40 145
3 138 228 213
3 137 212 227
3 135 225 210
3 134 209 223
3 85 86 166
3 99 268 205
3 136 211 226
3 133 222 208
3 132 207 220
3 123 166 248
3 44 158 259
3 8 258 159
3 54 55 152
3 87 88 151
3 99 205 287
3 120 156 217
3 132 143 207
3 133 208 144
3 134 146 209
3 96 158 285
3 99 217 156
3 69 149 182
3 97 288 159
3 130 218 206
3 135 210 147
3 78 79 265
3 137 148 212
3 138 213 149
3 80 143 265
3 74 181 148
3 125 154 259
3 124 258 155
3 136 150 211
3 144 297 264
3 126 285 158
3 129 159 288
3 297 63 264
3 112 213 228
3 66 147 180
3 113 227 212
3 100 152 201
3 101 202 151
3 59 60 161
3 114 210 225
3 77 179 146
3 116 226 211
3 115 223 209
3 25 26 162
3 28 29 163
3 22 23 164
3 117 208 222
3 77 146 263
3 122 201 152
3 123 151 202
3 31 32 167
3 19 20 168
3 118 220 207
3 34 35 169
3 16 17 170
3 130 206 153
3 12 236 156
3 66 262 147
3 71 72 171
3 108 173 231
3 74 148 261
3 111 206 218
3 125 259 158
3 124 159 258
3 79 80 265
3 40 197 145
3 136 169 266
3 69 260 149
3 98 157 218
3 37 150 256
3 27 183 185
3 24 187 184
3 30 186 189
3 21 191 188
3 33 190 193
3 18 194 192
3 63 64 264
3 132 265 143
3 111 218 157
3 14 160 200
3 138 270 171
3 133 144 264
3 127 285 176
3 128 177 288
3 38 251 153
3 68 69 182
3 57 157 196
3 1 236 12
3 134 263 146
3 123 248 151
3 122 152 247
3 60 178 161
3 121 231 173
3 74 75 181
3 135 147 262
3 76 77 263
3 42 154 198
3 10 199 155
3 48 49 176
3 137 261 148
3 93 94 177
3 108 207 143
3 87 151 248
3 55 247 152
3 107 144 208
3 59 161 214
3 138 149 260
3 137 171 273
3 107 226 165
3 116 165 226
3 106 209 146
3 66 67 262
3 65 66 180
3 105 147 210
3 136 256 150
3 125 291 154
3 124 155 290
3 104 212 148
3 103 149 213
3 3 47 234
3 0 233 95
3 77 78 179
3 12 156 221
3 2 145 235
3 112 185 183
3 113 184 187
3 114 189 186
3 115 188 191
3 117 193 190
3 118 192 194
3 130 153 251
3 100 154 291
3 101 290 155
3 101 151 272
3 100 271 152
3 37 232 150
3 0 6 233
3 3 234 46
3 54 152 230
3 88 229 151
3 16 170 244
3 26 185 162
3 25 162 187
3 28 163 183
3 23 184 164
3 29 189 163
3 22 164 191
3 73 74 261
3 131 195 160
3 31 167 186
3 110 160 195
3 20 188 168
3 32 193 167
3 19 168 194
3 34 169 190
3 204 290 272
3 203 271 291
3 17 192 170
3 139 205 268
3 38 153 232
3 69 70 260
3 4 237 50
3 5 92 238
3 13 14 200
3 98 278 157
3 57 298 157
3 4 51 237
3 5 238 91
3 14 295 160
3 36 37 256
3 144 165 297
3 120 221 156
3 141 204 272
3 140 271 203
3 60 61 178
3 45 241 158
3 7 159 240
3 126 158 241
3 129 240 159
3 62 165 219
3 99 287 166
3 84 239 215
3 56 57 196
3 2 235 39
3 111 157 298
3 99 156 268
3 109 274 161
3 62 297 165
3 38 39 251
3 53 54 230
3 88 89 229
3 26 27 185
3 27 28 183
3 24 25 187
3 23 24 184
3 29 30 189
3 30 31 186
3 21 22 191
3 20 21 188
3 32 33 193
3 33 34 190
3 18 19 194
3 17 18 192
3 100 246 154
3 101 155 245
3 109 161 267
3 83 215 172
3 116 219 165
3 131 160 295
3 142 215 239
3 35 266 169
3 72 273 171
3 52 276 174
3 90 175 275
3 72 73 273
3 70 71 270
3 71 171 270
3 102 162 294
3 102 292 162
3 170 301 244
3 35 36 266
3 103 257 163
3 103 163 289
3 41 42 198
3 10 11 199
3 104 164 255
3 104 286 164
3 53 230 276
3 89 275 229
3 105 254 167
3 105 167 280
3 106 168 252
3 106 279 168
3 110 172 269
3 107 250 169
3 70 270 260
3 49 283 176
3 73 261 273
3 93 177 284
3 142 287 205
3 36 256 266
3 85 166 239
3 131 231 195
3 121 195 231
3 153 206 299
3 52 53 276
3 89 90 275
3 109 299 206
3 40 41 197
3 98 277 253
3 39 235 251
3 121 173 224
3 57 58 298
3 81 224 173
3 14 15 295
3 48 176 281
3 61 219 178
3 145 253 277
3 94 282 177
3 11 12 221
3 127 176 283
3 128 284 177
3 61 62 219
3 116 178 219
3 127 242 174
3 128 175 243
3 62 63 297
3 161 274 214
3 150 299 211
3 41 198 197
3 109 211 299
3 83 84 215
3 119 201 216
3 120 217 202
3 116 267 178
3 58 59 214
3 84 85 239
3 119 197 198
3 108 301 249
3 126 281 176
3 129 177 282
3 122 216 201
3 123 202 217
3 170 249 301
3 52 174 242
3 90 243 175
3 140 174 276
3 141 275 175
3 81 82 224
3 37 38 232
3 145 197 253
3 6 7 240
3 45 46 241
3 131 244 301
3 161 178 267
3 64 65 300
3 116 211 267
3 75 76 296
3 67 68 293
3 118 249 192
3 117 190 250
3 51 52 242
3 90 91 243
3 115 252 188
3 114 186 254
3 113 255 184
3 112 183 257
3 111 298 214
3 157 278 196
3 120 199 221
3 118 194 279
3 117 280 193
3 115 191 286
3 15 16 244
3 114 289 189
3 112 294 185
3 55 56 247
3 86 87 248
3 113 187 292
3 122 247 196
3 109 206 274
3 11 221 199
3 141 229 275
3 140 276 230
3 47 48 281
3 94 95 282
3 8 9 258
3 43 44 259
3 126 176 285
3 56 196 247
3 129 288 177
3 118 207 249
3 117 250 208
3 154 246 198
3 155 199 245
3 115 209 252
3 114 254 210
3 113 212 255
3 119 198 246
3 120 245 199
3 112 257 213
3 142 205 269
3 111 214 274
3 98 253 216
3 110 269 205
3 49 50 283
3 92 93 284
3 101 272 290
3 100 291 271
3 130 251 235
3 100 201 246
3 101 245 202
3 118 279 220
3 117 222 280
3 115 286 223
3 114 225 289
3 113 292 227
3 112 228 294
3 119 253 197
3 170 192 249
3 169 250 190
3 168 188 252
3 167 254 186
3 164 184 255
3 163 257 183
3 138 260 270
3 122 196 278
3 136 266 256
3 135 293 182
3 134 181 296
3 133 300 180
3 68 182 293
3 75 296 181
3 65 180 300
3 137 273 261
3 120 202 245
3 119 246 201
3 145 277 235
3 130 235 277
3 108 249 207
3 107 208 250
3 106 252 209
3 103 213 257
3 105 210 254
3 104 255 212
3 168 279 194
3 167 193 280
3 6 240 233
3 46 234 241
3 164 286 191
3 163 189 289
3 162 292 187
3 162 185 294
3 151 229 272
3 152 271 230
3 128 243 238
3 127 237 242
3 102 227 292
3 102 294 228
3 103 289 225
3 104 223 286
3 105 280 222
3 106 220 279
3 172 215 269
3 122 278 216
3 119 216 253
3 109 267 211
3 166 287 239
3 125 203 291
3 124 290 204
3 142 239 287
3 51 242 237
3 91 238 243
3 111 274 206
3 64 300 264
3 142 269 215
3 129 233 240
3 126 241 234
3 47 281 234
3 95 233 282
3 76 263 296
3 131 295 244
3 67 293 262
3 130 277 218
3 98 218 277
3 98 216 278
3 58 214 298
3 140 230 271
3 141 272 229
3 108 231 301
3 156 236 268
3 50 237 283
3 92 284 238
3 153 299 232
3 150 232 299
3 131 301 231
3 129 282 233
3 126 234 281
3 139 268 236
3 127 283 237
3 128 238 284
3 15 244 295
3 135 262 293
3 134 296 263
3 133 264 300

CELL_TYPES 506
5 
5 
5 
5 
5 
5 
5 
5 
5 
5 
5 
5 
5 
5 
5 
5 
5 
5 
5 
5 
5 
5 
5 
5 
5 
5 
5 
5 
5 
5 
5 
5 
5 
5 
5 
5 
5 
5 
5 
5 
5 
5 
5 
5 
5 
5 
5 
5 
5 
5 
5 
5 
5 
5 
5 
5 
5 
5 
5 
5 
5 
5 
5 
5 
5 
5 
5 
5 
5 
5 
5 
5 
5 
5 
5 
5 
5 
5 
5 
5 
5 
5 
5 
5 
5 
5 
5 
5 
5 
5 
5 
5 
5 
5 
5 
5 
5 
5 
5 
5 
5 
5 
5 
5 
5 
5 
5 
5 
5 
5 
5 
5 
5 
5 
5 
5 
5 
5 
5 
5 
5 
5 
5 
5 
5 
5 
5 
5 
5 
5 
5 
5 
5 
5 
5 
5 
5 
5 
5 
5 
5 
5 
5 
5 
5 
5 
5 
5 
5 
5 
5 
5 
5 
5 
5 
5 
5 
5 
5 
5 
5 
5 
5 
5 
5 
5 
5 
5 
5 
5 
5 
5 
5 
5 
5 
5 
5 
5 
5 
5 
5 
5 
5 
5 
5 
5 
5 
5 
5 
5 
5 
5 
5 
5 
5 
5 
5 
5 
5 
5 
5 
5 
5 
5 
5 
5 
5 
5 
5 
5 
5 
5 
5 
5 
5 
5 
5 
5 
5 
5 
5 
5 
5 
5 
5 
5 
5 
5 
5 
5 
5 
5 
5 
5 
5 
5 
5 
5 
5 
5 
5 
5 
5 
5 
5 
5 
5 
5 
5 
5 
5 
5 
5 
5 
5 
5 
5 
5 
5 
5 
5 
5 
5 
5 
5 
5 
5 
5 
5 
5 
5 
5 
5 
5 
5 
5 
5 
5 
5 
5 
5 
5 
5 
5 
5 
5 
5 
5 
5 
5 
5 
5 
5 
5 
5 
5 
5 
5 
5 
5 
5 
5 
5 
5 
5 
5 
5 
5 
5 
5 
5 
5 
5 
5 
5 
5 
5 
5 
5 
5 
5 
5 
5 
5 
5 
5 
5 
5 
5 
5 
5 
5 
5 
5 
5 
5 
5 
5 
5 
5 
5 
5 
5 
5 
5 
5 
5 
5 
5 
5 
5 
5 
5 
5 
5 
5 
5 
5 
5 
5 
5 
5 
5 
5 
5 
5 
5 
5 
5 
5 
5 
5 
5 
5 
5 
5 
5 
5 
5 
5 
5 
5 
5 
5 
5 
5 
5 
5 
5 
5 
5 
5 
5 
5 
5 
5 
5 
5 
5 
5 
5 
5 
5 
5 
5 
5 
5 
5 
5 
5 
5 
5 
5 
5 
5 
5 
5 
5 
5 
5 
5 
5 
5 
5 
5 
5 
5 
5 
5 
5 
5 
5 
5 
5 
5 
5 
5 
5 
5 
5 
5 
5 
5 
5 
5 
5 
5 
5 
5 
5 
5 
5 
5 
5 
5 
5 
5 
5 
5 
5 
5 
5 
5 
5 
5 
5 
5 
5 
5 
5 
5 
5 
5 
5 
5 
5 
5 
5 
5 
5 
5 
5 
5 
5 
5 
5 
5 
5 
5 
5 
5 
5 
5 
5 
5 
5 
5 
5 
5 
5 
5 
5 
5 
5 
5 
5 

POINT_DATA 302
VECTORS vector double
0.0 0.0 0.0
0.0 0.0 0.0
0.0 0.0 0.0
0.0 0.0 0.0
0.0 0.0 0.0
0.0 0.0 0.0
0.0 0.0 0.0
0.0 0.0 0.0
0.0 0.0 0.0
0.0 0.0 0.0
0.0 0.0 0.0
0.0 0.0 0.0
0.0 0.0 0.0
0.0 0.0 0.0
0.0 0.0 0.0
0.0 0.0 0.0
0.0 0.0 0.0
0.0 0.0 0.0
0.0 0.0 0.0
0.0 0.0 0.0
0.0 0.0 0.0
0.0 0.0 0.0
0.0 0.0 0.0
0.0 0.0 0.0
0.0 0.0 0.0
0.0 0.0 0.0
0.0 0.0 0.0
0.0 0.0 0.0
0.0 0.0 0.0
0.0 0.0 0.0
0.0 0.0 0.0
0.0 0.0 0.0
0.0 0.0 0.0
0.0 0.0 0.0
0.0 0.0 0.0
0.0 0.0 0.0
0.0 0.0 0.0
0.0 0.0 0.0
0.0 0.0 0.0
0.0 0.0 0.0
0.0 0.0 0.0
0.0 0.0 0.0
0.0 0.0 0.0
0.0 0.0 0.0
0.0 0.0 0.0
0.0 0.0 0.0
0.0 0.0 0.0
0.928930597302 0.00346948210524 0.0
0.849201741636 -0.00110736441777 0.0
0.849300434271 -0.00150581031538 0.0
0.858514405938 -0.00284083794982 0.0
0.0 0.0 0.0
0.0 0.0 0.0
0.0 0.0 0.0
0.0 0.0 0.0
0.0 0.0 0.0
0.0 0.0 0.0
0.0 0.0 0.0
0.0 0.0 0.0
0.0 0.0 0.0
0.0 0.0 0.0
0.0 0.0 0.0
0.0 0.0 0.0
0.0 0.0 0.0
0.0 0.0 0.0
0.0 0.0 0.0
0.0 0.0 0.0
0.0 0.0 0.0
0.0 0.0 0.0
0.0 0.0 0.0
0.0 0.0 0.0
0.0 0.0 0.0
0.0 0.0 0.0
0.0 0.0 0.0
0.0 0.0 0.0
0.0 0.0 0.0
0.0 0.0 0.0
0.0 0.0 0.0
0.0 0.0 0.0
0.0 0.0 0.0
0.0 0.0 0.0
0.0 0.0 0.0
0.0 0.0 0.0
0.0 0.0 0.0
0.0 0.0 0.0
0.0 0.0 0.0
0.0 0.0 0.0
0.0 0.0 0.0
0.0 0.0 0.0
0.0 0.0 0.0
0.0 0.0 0.0
0.0 0.0 0.0
0.959999999998 0.0 0.0
1.44 0.0 0.0
1.44 0.0 0.0
0.960000000002 0.0 0.0
0.702838812649 0.000324253120334 0.0
0.808966823678 0.00340112122205 0.0
0.720421417075 -0.00311281103652 0.0
0.664026460521 0.00376680157299 0.0
0.732536689666 0.00219112886814 0.0
0.729916542077 -0.00554179041126 0.0
0.710978899068 0.00243948068429 0.0
0.580099568981 -0.00257484720229 0.0
0.582176520304 -0.000881828422675 0.0
0.58483699355 -0.00229825184526 0.0
0.603008886492 0.00211762415422 0.0
0.576041209144 -0.00917626092896 0.0
0.585673209678 -0.00439241301643 0.0
0.7587981071 -0.00240373263111 0.0
0.540707222493 -0.00059968489911 0.0
0.706860552591 0.00557368398875 0.0
0.737644601683 0.00571280456363 0.0
0.698222527959 -0.002848233256 0.0
0.725314401017 0.00282477744165 0.0
0.698914732554 0.00154304147577 0.0
0.666789019581 0.00745613437541 0.0
0.736839928785 0.00436629572868 0.0
0.662454538064 0.0022528961171 0.0
0.729961359554 -0.00360069988678 0.0
0.702196687889 -0.00746944387656 0.0
0.719803038309 0.00363493510684 0.0
0.755016536756 0.0130285988661 0.0
0.74746974696 0.00174965903286 0.0
0.791124888841 0.0105065438841 0.0
0.756827459163 0.00020724819204 0.0
0.767819582991 -0.00722399253093 0.0
0.762659420138 -0.00236460210568 0.0
0.833188587721 -0.0783054577065 0.0
0.809345543102 0.107346070491 0.0
0.718740088828 -0.00536148252855 0.0
0.715613951697 -0.00543924142112 0.0
0.740086545603 0.00481473404492 0.0
0.655693790395 -0.00316960289769 0.0
0.715757903874 0.0120386910027 0.0
0.682032208781 -0.00362383028518 0.0
0.651353226152 -0.00734586472981 0.0
0.637816128414 0.0099195009542 0.0
0.634980947271 -0.00549633028808 0.0
0.849654025869 -0.00729888382939 0.0
0.826715238808 0.00926245533293 0.0
0.792331839936 -0.0050423707664 0.0
0.857850676566 0.00559034324734 0.0
0.565328001547 0.00392652782006 0.0
0.641938549214 -0.00198510014762 0.0
0.771894236833 0.00130044590593 0.0
0.664796782733 0.00366730137633 0.0
0.595211053934 0.00403847438559 0.0
0.589783705985 0.00013589631187 0.0
0.589784264004 0.00177740737421 0.0
0.829349163039 -0.00506139819312 0.0
0.685049859808 -0.00743201286233 0.0
0.665285499479 -0.00096344989706 0.0
0.837735622556 0.000426048358631 0.0
0.78509452502 0.00430688820302 0.0
0.77197004292 0.00781142801474 0.0
0.71502809619 0.00124458773218 0.0
0.756674531617 -0.00442949519194 0.0
0.75484919651 -0.000627748944121 0.0
0.725306868084 0.020745698456 0.0
0.710303390105 -0.00188096451718 0.0
0.688575228274 -0.00343869429384 0.0
0.694115236198 -0.000832254516267 0.0
0.701819543361 0.000582373745538 0.0
0.695439794375 0.00339288244053 0.0
0.640383162093 -0.00311812716821 0.0
0.711700468798 -0.00443295146755 0.0
0.702131558779 0.000502653202377 0.0
0.692574281428 0.00207786066991 0.0
0.663583877293 -0.00589328998725 0.0
0.672772475758 0.00290026277388 0.0
0.665905570158 0.000714849092099 0.0
0.697058940474 -0.00542813016201 0.0
0.603263087359 -0.00183979104604 0.0
0.75681696686 -0.000535937276144 0.0
0.774585594524 -0.0129332352625 0.0
0.840924953318 0.0017933338689 0.0
1.0254211502 0.00205894105954 0.0
0.71456914892 -0.00631572219509 0.0
0.5635328754 -0.00287028148756 0.0
0.601935492433 0.000138138219184 0.0
0.629573029919 -0.00246737634943 0.0
0.605713372877 -0.000450287829465 0.0
0.69303923384 0.00511023270302 0.0
0.711663202346 0.00284515653894 0.0
0.737346855745 0.00402330589945 0.0
0.696939448632 0.00439208055852 0.0
0.726340619535 0.0015450916392 0.0
0.705745192919 0.00291814353272 0.0
0.723732057645 0.0046213924918 0.0
0.653478163345 0.00276218873075 0.0
0.686395523327 0.0034871012575 0.0
0.662793185398 0.00108046410292 0.0
0.720093278048 0.00393431782345 0.0
0.6747586319 0.0033514043084 0.0
0.633776509753 -0.00100668880079 0.0
0.801224311539 -0.00356076307898 0.0
0.746551140748 0.000640321567042 0.0
0.719555720281 0.00577428387177 0.0
0.800927545127 -0.00158298430426 0.0
0.640643755388 -0.00161974053576 0.0
0.725708138642 -0.00616274194487 0.0
0.702915281964 -0.00332502834102 0.0
0.673207342405 0.00109003562123 0.0
0.729681830501 0.00455275687208 0.0
0.68510873538 0.00579843229369 0.0
0.682479660199 0.000356473036893 0.0
0.598334127864 0.00208326343642 0.0
0.663340874689 -0.00245150389106 0.0
0.654196600861 0.000263118695114 0.0
0.621349472068 -0.00272526099795 0.0
0.636244664594 0.00925456061367 0.0
0.626263658101 -0.00530517162708 0.0
0.630342167159 -0.00291191531153 0.0
0.78887813166 0.000440784780015 0.0
0.709282864023 -0.00605875825108 0.0
0.735519808064 0.0044687774684 0.0
0.593400546197 0.00212327416227 0.0
0.648662253097 -0.00962468203489 0.0
0.810216477316 -0.00593286680181 0.0
0.642125764236 0.00347513649365 0.0
0.816859076173 0.00092126321001 0.0
0.647879259523 -0.000602427716641 0.0
0.663748988749 0.00404383184412 0.0
0.783752478392 0.00153412051635 0.0
0.660460596397 0.00165649852005 0.0
0.513894641326 -0.00331460232726 0.0
0.646673321813 -0.000686336814353 0.0
0.665704970068 0.00292995392034 0.0
0.772040766529 -0.0119379726551 0.0
0.770231962993 0.00226235585045 0.0
0.672600522504 -0.00214089169871 0.0
0.838280814371 0.00594737158702 0.0
0.729877561993 0.150611795847 0.0
0.87336527926 -0.0006541455642 0.0
0.758166069262 0.00549508763726 0.0
0.827916565408 0.00113913705673 0.0
0.849935209622 -0.00323786303578 0.0
0.731368051926 -0.15416285107 0.0
0.766293813282 0.002302940182 0.0
0.734778134504 0.0642038661456 0.0
0.910978847476 -0.0165345511515 0.0
0.851570303652 -0.00225944508882 0.0
0.740853079615 -0.0494243617959 0.0
0.757171509389 0.00558883337153 0.0
0.796943908077 -0.000495661033836 0.0
0.738076696875 0.000455687178683 0.0
0.777819547433 -0.000557115183049 0.0
0.788711218881 -0.00599572667313 0.0
0.606290173237 0.00193036211388 0.0
0.704975440503 -0.00187329038638 0.0
0.906638978915 0.002848154815 0.0
0.755685375207 0.000697640160269 0.0
0.709233978606 0.00185947553378 0.0
0.709293754579 -0.0035178222915 0.0
0.762062287501 0.00226987922806 0.0
0.885226009255 -0.0119927673488 0.0
0.708844451 -0.00373264097511 0.0
0.79536812724 0.00702532667664 0.0
0.781263548724 0.00144811819167 0.0
0.82943990467 0.00199655949748 0.0
0.936097689866 0.00702178199128 0.0
0.856175228226 0.0018595527668 0.0
0.958130434204 0.00746488366161 0.0
0.783876431513 0.000694280956113 0.0
0.820460919659 0.0105237212411 0.0
0.870601338514 -0.0153881505591 0.0
0.721455046375 0.00622165665836 0.0
0.684461372676 -0.0019435127352 0.0
0.774347964805 0.00318160728696 0.0
0.850952966638 0.00596004785388 0.0
0.739475443827 0.00196717700029 0.0
0.765748032931 -0.00979526999295 0.0
0.802152856961 -0.00032296924348 0.0
0.806558890449 -0.00073916128083 0.0
0.902476446112 -0.0148384215426 0.0
0.855166786112 0.00734983978083 0.0
0.688850038666 -0.000566642706363 0.0
0.802409183365 0.00940174786456 0.0
0.706834056614 0.00590770942719 0.0
0.786257319873 0.00395826277395 0.0
0.853442890216 -0.000296534438176 0.0
1.03752733674 0.204548582697 0.0
0.81674982147 -0.000483059879215 0.0
1.00413805395 -0.186126843575 0.0
0.863319460099 0.00741714448062 0.0
0.710399614492 0.0034831348839 0.0
0.823801800357 -0.000827642290673 0.0
0.874779247334 0.0258175465018 0.0
0.781569083955 0.00505570267223 0.0
0.825601786132 -0.000714862677768 0.0
0.816071949227 0.00861985763179 0.0
0.749012294001 -0.00563206968441 0.0
0.911409877193 -0.0025088899187 0.0
0.817563070428 0.0112192136811 0.0
0.895329505366 -0.00444855798941 0.0
0.854522632178 -0.00191143284143 0.0
0.768256988317 0.00683548289633 0.0
0.784304525446 0.00535569726625 0.0
0.703333066909 -0.00596803003922 0.0
0.851468480858 -0.00241270698382 0.0
0.655394797631 -0.00418268309751 0.0

SCALARS scalar1 double
LOOKUP_TABLE default
90.2106145082
77.3255577057
14.5506852092
0.0
0.0
90.1239070716
89.9301038913
88.1808043503
86.4943540594
84.6772354426
82.9492660808
81.112334571
79.0579214622
75.28226146
72.7957286066
70.8253545728
68.5987291249
66.1281916392
63.6599554428
61.2766398176
59.0658488855
56.8188509254
54.4698935304
52.2474981545
49.9801724907
47.6661413153
45.4915896524
43.2899878409
40.951306586
38.7447727555
36.5064379923
34.1458040107
31.9348779432
29.6836713008
27.3064320299
24.8383584367
22.7326541969
20.61644072
18.5347212973
16.7084555232
12.6111826007
10.6721383285
8.67884552212
6.87505563492
5.00019113272
3.19691291304
1.59325198378
0.0
0.0
0.0
0.0
1.85520662785
3.5722112004
5.52827212553
7.60484889146
9.7517931436
11.908499985
13.8748868144
16.0771720733
18.1287487241
20.2591224824
22.5330312973
24.6676497398
26.9666595871
29.325085519
31.4949997226
34.1048597299
36.3550933653
38.4068154417
41.007675263
43.2841290175
45.4694531932
47.8314649424
50.082183474
52.2231834181
54.8345169469
57.0780736363
59.0591698591
61.7075796864
64.0119602958
66.2550008162
68.9276348516
71.2550024909
73.4046763462
75.6816357905
77.7946104909
79.8989223117
81.9933149594
84.087652244
86.1145356836
87.808470914
89.7027368412
90.3047162371
90.7944469122
90.80685968
90.3786319607
3.65199674596
87.7927507049
13.555492374
78.1155228544
8.19933694945
83.4639841238
46.4617235427
39.936949114
53.1280836982
33.1186457699
59.823597089
26.4506311912
67.1329979026
19.4435952371
73.5123153175
16.4432434429
43.5016702489
49.8455262141
36.6722213542
56.7129382538
22.7883447593
29.8301133764
63.5337558881
10.7869051778
81.0351103358
70.5619605092
11.0600299054
80.9660722376
85.7715366557
6.01674989981
2.07432145723
2.34026058301
89.2007548026
89.5053903763
16.5320238259
70.5028081399
62.9777740163
29.9917633083
56.4892023898
36.9533478357
23.1879563105
49.3174350004
44.0490771835
76.0812841719
5.64988819744
86.0391563826
75.8465915835
65.5317572249
27.5820476403
13.5486929168
58.5099143459
34.6405092368
51.711252491
41.501500804
21.0830309388
82.8183609828
8.77467022804
18.1815825221
7.55351102264
83.8485145458
78.9961596203
14.2027352245
3.8791329413
87.3310168163
72.3085062133
19.2060881269
46.462459384
39.7933029354
53.2222534644
24.939322019
78.7576258177
32.9781992586
60.0224171459
25.7832275605
67.2899736779
46.5712490281
72.4032108818
68.317012503
3.94677692219
87.4683714002
1.31900963484
90.4688197991
21.5071481756
60.7529952795
32.188394224
54.2337933196
39.0406865186
42.2670455491
51.0943554633
44.4436087667
35.4559478749
48.8683780413
57.9332078379
37.6755276013
28.4820546163
55.6846706492
64.8183636922
30.856669917
62.4633880082
71.5641463336
12.6366192132
11.6576383
9.75992932687
82.0963324445
74.4809743588
9.91710042332
81.9009601067
5.26787304693
86.3873845244
75.8858229287
17.7336089479
64.4609614066
28.8368861723
57.6590707655
35.6922788898
21.459280107
50.8070055617
42.5489033091
17.306745191
74.688936692
11.7092289712
79.82729086
15.4784341193
23.4293817028
62.206417383
80.4741610437
31.1353963333
55.4694124657
70.4566364256
37.970294594
24.1802500116
48.4127141636
44.9618113836
84.9675053685
6.72423852887
69.3464357728
19.7139348857
90.2733700712
1.16408181888
15.5072684119
77.4528236332
1.35304800787
90.1050932012
76.8029191635
89.0766391582
2.46029202011
2.69395183889
88.9009877623
69.5648077485
82.6074801179
9.22786372722
10.8117176852
80.9801626831
65.9649924775
27.8345438464
17.1978471541
58.6441460031
12.6057685264
34.7284252813
51.8476646148
22.3209678807
41.5513835007
85.752776432
5.96969571721
42.8846934365
50.4824408932
35.931162533
57.4783258857
28.5650234287
64.0646462115
23.9275694754
20.8588239933
77.370026828
74.5248311484
44.657210575
7.06831748129
84.6702058124
48.765585705
18.1205168611
86.6177991229
5.06431611159
14.4883439619
12.7013429642
61.5782998209
31.7369336626
0.912201007257
90.5781137911
0.997478640265
90.5029050558
2.64117472393
54.8318129589
77.1931952587
88.8313071337
38.5578783571
84.7788110522
6.92770815541